    1C
    1UUSER                                                              
    1UDATE              25.may.2018                                     
    1UTIME              12:41:25                                        
    1UHOST                                                              
    1UPGM               CalculiX                                        
    1UDIR                                                               
    1UDBN                                                               
    1UMAT    1MATERIAL-1                                                
    1UMAT    2TOPO_MATERIAL1                                            
    1UMAT    3TOPO_MATERIAL2                                            
    1UMAT    4TOPO_MATERIAL3                                            
    1UMAT    5TOPO_MATERIAL4                                            
    1UMAT    6TOPO_MATERIAL5                                            
    1UMAT    7TOPO_MATERIAL6                                            
    1UMAT    8TOPO_MATERIAL7                                            
    1UMAT    9TOPO_MATERIAL8                                            
    1UMAT   10TOPO_MATERIAL9                                            
    1UMAT   11TOPO_MATERIAL10                                           
    2C                           973                                     1
 -1         1-2.50000E+01 0.00000E+00 2.00000E+02
 -1         2-2.50000E+01 5.00000E+00 2.00000E+02
 -1         3-2.50000E+01 0.00000E+00 1.90000E+02
 -1         4-2.50000E+01 5.00000E+00 1.90000E+02
 -1         5-2.50000E+01 0.00000E+00 1.80000E+02
 -1         6-2.50000E+01 5.00000E+00 1.80000E+02
 -1         7-2.50000E+01 0.00000E+00 1.70000E+02
 -1         8-2.50000E+01 5.00000E+00 1.70000E+02
 -1         9-2.50000E+01 0.00000E+00 1.60000E+02
 -1        10-2.50000E+01 5.00000E+00 1.60000E+02
 -1        11-2.50000E+01 0.00000E+00 1.50000E+02
 -1        12-2.50000E+01 5.00000E+00 1.50000E+02
 -1        13-2.50000E+01 0.00000E+00 1.40000E+02
 -1        14-2.50000E+01 5.00000E+00 1.40000E+02
 -1        15-2.50000E+01 0.00000E+00 1.30000E+02
 -1        16-2.50000E+01 5.00000E+00 1.30000E+02
 -1        17-2.50000E+01 0.00000E+00 1.20000E+02
 -1        18-2.50000E+01 5.00000E+00 1.20000E+02
 -1        19-2.50000E+01 0.00000E+00 1.10000E+02
 -1        20-2.50000E+01 5.00000E+00 1.10000E+02
 -1        21-2.50000E+01 0.00000E+00 1.00000E+02
 -1        22-2.50000E+01 5.00000E+00 1.00000E+02
 -1        23-2.50000E+01 0.00000E+00 9.00000E+01
 -1        24-2.50000E+01 5.00000E+00 9.00000E+01
 -1        25-2.50000E+01 0.00000E+00 8.00000E+01
 -1        26-2.50000E+01 5.00000E+00 8.00000E+01
 -1        27-2.50000E+01 0.00000E+00 7.00000E+01
 -1        28-2.50000E+01 5.00000E+00 7.00000E+01
 -1        29-2.50000E+01 0.00000E+00 6.00000E+01
 -1        30-2.50000E+01 5.00000E+00 6.00000E+01
 -1        31-2.50000E+01 0.00000E+00 5.00000E+01
 -1        32-2.50000E+01 5.00000E+00 5.00000E+01
 -1        33-2.50000E+01 0.00000E+00 4.00000E+01
 -1        34-2.50000E+01 5.00000E+00 4.00000E+01
 -1        35-2.50000E+01 0.00000E+00 3.00000E+01
 -1        36-2.50000E+01 5.00000E+00 3.00000E+01
 -1        37-2.50000E+01 0.00000E+00 2.00000E+01
 -1        38-2.50000E+01 5.00000E+00 2.00000E+01
 -1        39-2.50000E+01 0.00000E+00 1.00000E+01
 -1        40-2.50000E+01 5.00000E+00 1.00000E+01
 -1        41-2.50000E+01 0.00000E+00 0.00000E+00
 -1        42-2.50000E+01 5.00000E+00 0.00000E+00
 -1        43-1.58333E+01 0.00000E+00 2.00000E+02
 -1        44-1.58333E+01 5.00000E+00 2.00000E+02
 -1        45-1.58333E+01 0.00000E+00 1.90000E+02
 -1        46-1.58333E+01 5.00000E+00 1.90000E+02
 -1        47-1.58333E+01 0.00000E+00 1.80000E+02
 -1        48-1.58333E+01 5.00000E+00 1.80000E+02
 -1        49-1.58333E+01 0.00000E+00 1.70000E+02
 -1        50-1.58333E+01 5.00000E+00 1.70000E+02
 -1        51-1.58333E+01 0.00000E+00 1.60000E+02
 -1        52-1.58333E+01 5.00000E+00 1.60000E+02
 -1        53-1.58333E+01 0.00000E+00 1.50000E+02
 -1        54-1.58333E+01 5.00000E+00 1.50000E+02
 -1        55-1.58333E+01 0.00000E+00 1.40000E+02
 -1        56-1.58333E+01 5.00000E+00 1.40000E+02
 -1        57-1.58333E+01 0.00000E+00 1.30000E+02
 -1        58-1.58333E+01 5.00000E+00 1.30000E+02
 -1        59-1.58333E+01 0.00000E+00 1.20000E+02
 -1        60-1.58333E+01 5.00000E+00 1.20000E+02
 -1        61-1.58333E+01 0.00000E+00 1.10000E+02
 -1        62-1.58333E+01 5.00000E+00 1.10000E+02
 -1        63-1.58333E+01 0.00000E+00 1.00000E+02
 -1        64-1.58333E+01 5.00000E+00 1.00000E+02
 -1        65-1.58333E+01 0.00000E+00 9.00000E+01
 -1        66-1.58333E+01 5.00000E+00 9.00000E+01
 -1        67-1.58333E+01 0.00000E+00 8.00000E+01
 -1        68-1.58333E+01 5.00000E+00 8.00000E+01
 -1        69-1.58333E+01 0.00000E+00 7.00000E+01
 -1        70-1.58333E+01 5.00000E+00 7.00000E+01
 -1        71-1.58333E+01 0.00000E+00 6.00000E+01
 -1        72-1.58333E+01 5.00000E+00 6.00000E+01
 -1        73-1.58333E+01 0.00000E+00 5.00000E+01
 -1        74-1.58333E+01 5.00000E+00 5.00000E+01
 -1        75-1.58333E+01 0.00000E+00 4.00000E+01
 -1        76-1.58333E+01 5.00000E+00 4.00000E+01
 -1        77-1.58333E+01 0.00000E+00 3.00000E+01
 -1        78-1.58333E+01 5.00000E+00 3.00000E+01
 -1        79-1.58333E+01 0.00000E+00 2.00000E+01
 -1        80-1.58333E+01 5.00000E+00 2.00000E+01
 -1        81-1.58333E+01 0.00000E+00 1.00000E+01
 -1        82-1.58333E+01 5.00000E+00 1.00000E+01
 -1        83-1.58333E+01 0.00000E+00 0.00000E+00
 -1        84-1.58333E+01 5.00000E+00 0.00000E+00
 -1        85-6.66667E+00 0.00000E+00 2.00000E+02
 -1        86-6.66667E+00 5.00000E+00 2.00000E+02
 -1        87-6.66667E+00 0.00000E+00 1.90000E+02
 -1        88-6.66667E+00 5.00000E+00 1.90000E+02
 -1        89-6.66667E+00 0.00000E+00 1.80000E+02
 -1        90-6.66667E+00 5.00000E+00 1.80000E+02
 -1        91-6.66667E+00 0.00000E+00 1.70000E+02
 -1        92-6.66667E+00 5.00000E+00 1.70000E+02
 -1        93-6.66667E+00 0.00000E+00 1.60000E+02
 -1        94-6.66667E+00 5.00000E+00 1.60000E+02
 -1        95-6.66667E+00 0.00000E+00 1.50000E+02
 -1        96-6.66667E+00 5.00000E+00 1.50000E+02
 -1        97-6.66667E+00 0.00000E+00 1.40000E+02
 -1        98-6.66667E+00 5.00000E+00 1.40000E+02
 -1        99-6.66667E+00 0.00000E+00 1.30000E+02
 -1       100-6.66667E+00 5.00000E+00 1.30000E+02
 -1       101-6.66667E+00 0.00000E+00 1.20000E+02
 -1       102-6.66667E+00 5.00000E+00 1.20000E+02
 -1       103-6.66667E+00 0.00000E+00 1.10000E+02
 -1       104-6.66667E+00 5.00000E+00 1.10000E+02
 -1       105-6.66667E+00 0.00000E+00 1.00000E+02
 -1       106-6.66667E+00 5.00000E+00 1.00000E+02
 -1       107-6.66667E+00 0.00000E+00 9.00000E+01
 -1       108-6.66667E+00 5.00000E+00 9.00000E+01
 -1       109-6.66667E+00 0.00000E+00 8.00000E+01
 -1       110-6.66667E+00 5.00000E+00 8.00000E+01
 -1       111-6.66667E+00 0.00000E+00 7.00000E+01
 -1       112-6.66667E+00 5.00000E+00 7.00000E+01
 -1       113-6.66667E+00 0.00000E+00 6.00000E+01
 -1       114-6.66667E+00 5.00000E+00 6.00000E+01
 -1       115-6.66667E+00 0.00000E+00 5.00000E+01
 -1       116-6.66667E+00 5.00000E+00 5.00000E+01
 -1       117-6.66667E+00 0.00000E+00 4.00000E+01
 -1       118-6.66667E+00 5.00000E+00 4.00000E+01
 -1       119-6.66667E+00 0.00000E+00 3.00000E+01
 -1       120-6.66667E+00 5.00000E+00 3.00000E+01
 -1       121-6.66667E+00 0.00000E+00 2.00000E+01
 -1       122-6.66667E+00 5.00000E+00 2.00000E+01
 -1       123-6.66667E+00 0.00000E+00 1.00000E+01
 -1       124-6.66667E+00 5.00000E+00 1.00000E+01
 -1       125-6.66667E+00 0.00000E+00 0.00000E+00
 -1       126-6.66667E+00 5.00000E+00 0.00000E+00
 -1       127 2.50000E+00 0.00000E+00 2.00000E+02
 -1       128 2.50000E+00 5.00000E+00 2.00000E+02
 -1       129 2.50000E+00 0.00000E+00 1.90000E+02
 -1       130 2.50000E+00 5.00000E+00 1.90000E+02
 -1       131 2.50000E+00 0.00000E+00 1.80000E+02
 -1       132 2.50000E+00 5.00000E+00 1.80000E+02
 -1       133 2.50000E+00 0.00000E+00 1.70000E+02
 -1       134 2.50000E+00 5.00000E+00 1.70000E+02
 -1       135 2.50000E+00 0.00000E+00 1.60000E+02
 -1       136 2.50000E+00 5.00000E+00 1.60000E+02
 -1       137 2.50000E+00 0.00000E+00 1.50000E+02
 -1       138 2.50000E+00 5.00000E+00 1.50000E+02
 -1       139 2.50000E+00 0.00000E+00 1.40000E+02
 -1       140 2.50000E+00 5.00000E+00 1.40000E+02
 -1       141 2.50000E+00 0.00000E+00 1.30000E+02
 -1       142 2.50000E+00 5.00000E+00 1.30000E+02
 -1       143 2.50000E+00 0.00000E+00 1.20000E+02
 -1       144 2.50000E+00 5.00000E+00 1.20000E+02
 -1       145 2.50000E+00 0.00000E+00 1.10000E+02
 -1       146 2.50000E+00 5.00000E+00 1.10000E+02
 -1       147 2.50000E+00 0.00000E+00 1.00000E+02
 -1       148 2.50000E+00 5.00000E+00 1.00000E+02
 -1       149 2.50000E+00 0.00000E+00 9.00000E+01
 -1       150 2.50000E+00 5.00000E+00 9.00000E+01
 -1       151 2.50000E+00 0.00000E+00 8.00000E+01
 -1       152 2.50000E+00 5.00000E+00 8.00000E+01
 -1       153 2.50000E+00 0.00000E+00 7.00000E+01
 -1       154 2.50000E+00 5.00000E+00 7.00000E+01
 -1       155 2.50000E+00 0.00000E+00 6.00000E+01
 -1       156 2.50000E+00 5.00000E+00 6.00000E+01
 -1       157 2.50000E+00 0.00000E+00 5.00000E+01
 -1       158 2.50000E+00 5.00000E+00 5.00000E+01
 -1       159 2.50000E+00 0.00000E+00 4.00000E+01
 -1       160 2.50000E+00 5.00000E+00 4.00000E+01
 -1       161 2.50000E+00 0.00000E+00 3.00000E+01
 -1       162 2.50000E+00 5.00000E+00 3.00000E+01
 -1       163 2.50000E+00 0.00000E+00 2.00000E+01
 -1       164 2.50000E+00 5.00000E+00 2.00000E+01
 -1       165 2.50000E+00 0.00000E+00 1.00000E+01
 -1       166 2.50000E+00 5.00000E+00 1.00000E+01
 -1       167 2.50000E+00 0.00000E+00 0.00000E+00
 -1       168 2.50000E+00 5.00000E+00 0.00000E+00
 -1       169 1.16667E+01 0.00000E+00 2.00000E+02
 -1       170 1.16667E+01 5.00000E+00 2.00000E+02
 -1       171 1.16667E+01 0.00000E+00 1.90000E+02
 -1       172 1.16667E+01 5.00000E+00 1.90000E+02
 -1       173 1.16667E+01 0.00000E+00 1.80000E+02
 -1       174 1.16667E+01 5.00000E+00 1.80000E+02
 -1       175 1.16667E+01 0.00000E+00 1.70000E+02
 -1       176 1.16667E+01 5.00000E+00 1.70000E+02
 -1       177 1.16667E+01 0.00000E+00 1.60000E+02
 -1       178 1.16667E+01 5.00000E+00 1.60000E+02
 -1       179 1.16667E+01 0.00000E+00 1.50000E+02
 -1       180 1.16667E+01 5.00000E+00 1.50000E+02
 -1       181 1.16667E+01 0.00000E+00 1.40000E+02
 -1       182 1.16667E+01 5.00000E+00 1.40000E+02
 -1       183 1.16667E+01 0.00000E+00 1.30000E+02
 -1       184 1.16667E+01 5.00000E+00 1.30000E+02
 -1       185 1.16667E+01 0.00000E+00 1.20000E+02
 -1       186 1.16667E+01 5.00000E+00 1.20000E+02
 -1       187 1.16667E+01 0.00000E+00 1.10000E+02
 -1       188 1.16667E+01 5.00000E+00 1.10000E+02
 -1       189 1.16667E+01 0.00000E+00 1.00000E+02
 -1       190 1.16667E+01 5.00000E+00 1.00000E+02
 -1       191 1.16667E+01 0.00000E+00 9.00000E+01
 -1       192 1.16667E+01 5.00000E+00 9.00000E+01
 -1       193 1.16667E+01 0.00000E+00 8.00000E+01
 -1       194 1.16667E+01 5.00000E+00 8.00000E+01
 -1       195 1.16667E+01 0.00000E+00 7.00000E+01
 -1       196 1.16667E+01 5.00000E+00 7.00000E+01
 -1       197 1.16667E+01 0.00000E+00 6.00000E+01
 -1       198 1.16667E+01 5.00000E+00 6.00000E+01
 -1       199 1.16667E+01 0.00000E+00 5.00000E+01
 -1       200 1.16667E+01 5.00000E+00 5.00000E+01
 -1       201 1.16667E+01 0.00000E+00 4.00000E+01
 -1       202 1.16667E+01 5.00000E+00 4.00000E+01
 -1       203 1.16667E+01 0.00000E+00 3.00000E+01
 -1       204 1.16667E+01 5.00000E+00 3.00000E+01
 -1       205 1.16667E+01 0.00000E+00 2.00000E+01
 -1       206 1.16667E+01 5.00000E+00 2.00000E+01
 -1       207 1.16667E+01 0.00000E+00 1.00000E+01
 -1       208 1.16667E+01 5.00000E+00 1.00000E+01
 -1       209 1.16667E+01 0.00000E+00 0.00000E+00
 -1       210 1.16667E+01 5.00000E+00 0.00000E+00
 -1       211 2.08333E+01 0.00000E+00 2.00000E+02
 -1       212 2.08333E+01 5.00000E+00 2.00000E+02
 -1       213 2.08333E+01 0.00000E+00 1.90000E+02
 -1       214 2.08333E+01 5.00000E+00 1.90000E+02
 -1       215 2.08333E+01 0.00000E+00 1.80000E+02
 -1       216 2.08333E+01 5.00000E+00 1.80000E+02
 -1       217 2.08333E+01 0.00000E+00 1.70000E+02
 -1       218 2.08333E+01 5.00000E+00 1.70000E+02
 -1       219 2.08333E+01 0.00000E+00 1.60000E+02
 -1       220 2.08333E+01 5.00000E+00 1.60000E+02
 -1       221 2.08333E+01 0.00000E+00 1.50000E+02
 -1       222 2.08333E+01 5.00000E+00 1.50000E+02
 -1       223 2.08333E+01 0.00000E+00 1.40000E+02
 -1       224 2.08333E+01 5.00000E+00 1.40000E+02
 -1       225 2.08333E+01 0.00000E+00 1.30000E+02
 -1       226 2.08333E+01 5.00000E+00 1.30000E+02
 -1       227 2.08333E+01 0.00000E+00 1.20000E+02
 -1       228 2.08333E+01 5.00000E+00 1.20000E+02
 -1       229 2.08333E+01 0.00000E+00 1.10000E+02
 -1       230 2.08333E+01 5.00000E+00 1.10000E+02
 -1       231 2.08333E+01 0.00000E+00 1.00000E+02
 -1       232 2.08333E+01 5.00000E+00 1.00000E+02
 -1       233 2.08333E+01 0.00000E+00 9.00000E+01
 -1       234 2.08333E+01 5.00000E+00 9.00000E+01
 -1       235 2.08333E+01 0.00000E+00 8.00000E+01
 -1       236 2.08333E+01 5.00000E+00 8.00000E+01
 -1       237 2.08333E+01 0.00000E+00 7.00000E+01
 -1       238 2.08333E+01 5.00000E+00 7.00000E+01
 -1       239 2.08333E+01 0.00000E+00 6.00000E+01
 -1       240 2.08333E+01 5.00000E+00 6.00000E+01
 -1       241 2.08333E+01 0.00000E+00 5.00000E+01
 -1       242 2.08333E+01 5.00000E+00 5.00000E+01
 -1       243 2.08333E+01 0.00000E+00 4.00000E+01
 -1       244 2.08333E+01 5.00000E+00 4.00000E+01
 -1       245 2.08333E+01 0.00000E+00 3.00000E+01
 -1       246 2.08333E+01 5.00000E+00 3.00000E+01
 -1       247 2.08333E+01 0.00000E+00 2.00000E+01
 -1       248 2.08333E+01 5.00000E+00 2.00000E+01
 -1       249 2.08333E+01 0.00000E+00 1.00000E+01
 -1       250 2.08333E+01 5.00000E+00 1.00000E+01
 -1       251 2.08333E+01 0.00000E+00 0.00000E+00
 -1       252 2.08333E+01 5.00000E+00 0.00000E+00
 -1       253 3.00000E+01 0.00000E+00 2.00000E+02
 -1       254 3.00000E+01 5.00000E+00 2.00000E+02
 -1       255 3.00000E+01 0.00000E+00 1.90000E+02
 -1       256 3.00000E+01 5.00000E+00 1.90000E+02
 -1       257 3.00000E+01 0.00000E+00 1.80000E+02
 -1       258 3.00000E+01 5.00000E+00 1.80000E+02
 -1       259 3.00000E+01 0.00000E+00 1.70000E+02
 -1       260 3.00000E+01 5.00000E+00 1.70000E+02
 -1       261 3.00000E+01 0.00000E+00 1.60000E+02
 -1       262 3.00000E+01 5.00000E+00 1.60000E+02
 -1       263 3.00000E+01 0.00000E+00 1.50000E+02
 -1       264 3.00000E+01 5.00000E+00 1.50000E+02
 -1       265 3.00000E+01 0.00000E+00 1.40000E+02
 -1       266 3.00000E+01 5.00000E+00 1.40000E+02
 -1       267 3.00000E+01 0.00000E+00 1.30000E+02
 -1       268 3.00000E+01 5.00000E+00 1.30000E+02
 -1       269 3.00000E+01 0.00000E+00 1.20000E+02
 -1       270 3.00000E+01 5.00000E+00 1.20000E+02
 -1       271 3.00000E+01 0.00000E+00 1.10000E+02
 -1       272 3.00000E+01 5.00000E+00 1.10000E+02
 -1       273 3.00000E+01 0.00000E+00 1.00000E+02
 -1       274 3.00000E+01 5.00000E+00 1.00000E+02
 -1       275 3.00000E+01 0.00000E+00 9.00000E+01
 -1       276 3.00000E+01 5.00000E+00 9.00000E+01
 -1       277 3.00000E+01 0.00000E+00 8.00000E+01
 -1       278 3.00000E+01 5.00000E+00 8.00000E+01
 -1       279 3.00000E+01 0.00000E+00 7.00000E+01
 -1       280 3.00000E+01 5.00000E+00 7.00000E+01
 -1       281 3.00000E+01 0.00000E+00 6.00000E+01
 -1       282 3.00000E+01 5.00000E+00 6.00000E+01
 -1       283 3.00000E+01 0.00000E+00 5.00000E+01
 -1       284 3.00000E+01 5.00000E+00 5.00000E+01
 -1       285 3.00000E+01 0.00000E+00 4.00000E+01
 -1       286 3.00000E+01 5.00000E+00 4.00000E+01
 -1       287 3.00000E+01 0.00000E+00 3.00000E+01
 -1       288 3.00000E+01 5.00000E+00 3.00000E+01
 -1       289 3.00000E+01 0.00000E+00 2.00000E+01
 -1       290 3.00000E+01 5.00000E+00 2.00000E+01
 -1       291 3.00000E+01 0.00000E+00 1.00000E+01
 -1       292 3.00000E+01 5.00000E+00 1.00000E+01
 -1       293 3.00000E+01 0.00000E+00 0.00000E+00
 -1       294 3.00000E+01 5.00000E+00 0.00000E+00
 -1       295-1.58333E+01 0.00000E+00 1.95000E+02
 -1       296-1.58333E+01 2.50000E+00 1.90000E+02
 -1       297-1.58333E+01 5.00000E+00 1.95000E+02
 -1       298-1.58333E+01 2.50000E+00 2.00000E+02
 -1       299-2.50000E+01 2.50000E+00 2.00000E+02
 -1       300-2.50000E+01 5.00000E+00 1.95000E+02
 -1       301-2.50000E+01 2.50000E+00 1.90000E+02
 -1       302-2.50000E+01 0.00000E+00 1.95000E+02
 -1       303-2.04167E+01 5.00000E+00 2.00000E+02
 -1       304-2.04167E+01 0.00000E+00 2.00000E+02
 -1       305-2.04167E+01 5.00000E+00 1.90000E+02
 -1       306-2.04167E+01 0.00000E+00 1.90000E+02
 -1       307-1.58333E+01 0.00000E+00 1.85000E+02
 -1       308-1.58333E+01 2.50000E+00 1.80000E+02
 -1       309-1.58333E+01 5.00000E+00 1.85000E+02
 -1       310-2.50000E+01 5.00000E+00 1.85000E+02
 -1       311-2.50000E+01 2.50000E+00 1.80000E+02
 -1       312-2.50000E+01 0.00000E+00 1.85000E+02
 -1       313-2.04167E+01 5.00000E+00 1.80000E+02
 -1       314-2.04167E+01 0.00000E+00 1.80000E+02
 -1       315-1.58333E+01 0.00000E+00 1.75000E+02
 -1       316-1.58333E+01 2.50000E+00 1.70000E+02
 -1       317-1.58333E+01 5.00000E+00 1.75000E+02
 -1       318-2.50000E+01 5.00000E+00 1.75000E+02
 -1       319-2.50000E+01 2.50000E+00 1.70000E+02
 -1       320-2.50000E+01 0.00000E+00 1.75000E+02
 -1       321-2.04167E+01 5.00000E+00 1.70000E+02
 -1       322-2.04167E+01 0.00000E+00 1.70000E+02
 -1       323-1.58333E+01 0.00000E+00 1.65000E+02
 -1       324-1.58333E+01 2.50000E+00 1.60000E+02
 -1       325-1.58333E+01 5.00000E+00 1.65000E+02
 -1       326-2.50000E+01 5.00000E+00 1.65000E+02
 -1       327-2.50000E+01 2.50000E+00 1.60000E+02
 -1       328-2.50000E+01 0.00000E+00 1.65000E+02
 -1       329-2.04167E+01 5.00000E+00 1.60000E+02
 -1       330-2.04167E+01 0.00000E+00 1.60000E+02
 -1       331-1.58333E+01 0.00000E+00 1.55000E+02
 -1       332-1.58333E+01 2.50000E+00 1.50000E+02
 -1       333-1.58333E+01 5.00000E+00 1.55000E+02
 -1       334-2.50000E+01 5.00000E+00 1.55000E+02
 -1       335-2.50000E+01 2.50000E+00 1.50000E+02
 -1       336-2.50000E+01 0.00000E+00 1.55000E+02
 -1       337-2.04167E+01 5.00000E+00 1.50000E+02
 -1       338-2.04167E+01 0.00000E+00 1.50000E+02
 -1       339-1.58333E+01 0.00000E+00 1.45000E+02
 -1       340-1.58333E+01 2.50000E+00 1.40000E+02
 -1       341-1.58333E+01 5.00000E+00 1.45000E+02
 -1       342-2.50000E+01 5.00000E+00 1.45000E+02
 -1       343-2.50000E+01 2.50000E+00 1.40000E+02
 -1       344-2.50000E+01 0.00000E+00 1.45000E+02
 -1       345-2.04167E+01 5.00000E+00 1.40000E+02
 -1       346-2.04167E+01 0.00000E+00 1.40000E+02
 -1       347-1.58333E+01 0.00000E+00 1.35000E+02
 -1       348-1.58333E+01 2.50000E+00 1.30000E+02
 -1       349-1.58333E+01 5.00000E+00 1.35000E+02
 -1       350-2.50000E+01 5.00000E+00 1.35000E+02
 -1       351-2.50000E+01 2.50000E+00 1.30000E+02
 -1       352-2.50000E+01 0.00000E+00 1.35000E+02
 -1       353-2.04167E+01 5.00000E+00 1.30000E+02
 -1       354-2.04167E+01 0.00000E+00 1.30000E+02
 -1       355-1.58333E+01 0.00000E+00 1.25000E+02
 -1       356-1.58333E+01 2.50000E+00 1.20000E+02
 -1       357-1.58333E+01 5.00000E+00 1.25000E+02
 -1       358-2.50000E+01 5.00000E+00 1.25000E+02
 -1       359-2.50000E+01 2.50000E+00 1.20000E+02
 -1       360-2.50000E+01 0.00000E+00 1.25000E+02
 -1       361-2.04167E+01 5.00000E+00 1.20000E+02
 -1       362-2.04167E+01 0.00000E+00 1.20000E+02
 -1       363-1.58333E+01 0.00000E+00 1.15000E+02
 -1       364-1.58333E+01 2.50000E+00 1.10000E+02
 -1       365-1.58333E+01 5.00000E+00 1.15000E+02
 -1       366-2.50000E+01 5.00000E+00 1.15000E+02
 -1       367-2.50000E+01 2.50000E+00 1.10000E+02
 -1       368-2.50000E+01 0.00000E+00 1.15000E+02
 -1       369-2.04167E+01 5.00000E+00 1.10000E+02
 -1       370-2.04167E+01 0.00000E+00 1.10000E+02
 -1       371-1.58333E+01 0.00000E+00 1.05000E+02
 -1       372-1.58333E+01 2.50000E+00 1.00000E+02
 -1       373-1.58333E+01 5.00000E+00 1.05000E+02
 -1       374-2.50000E+01 5.00000E+00 1.05000E+02
 -1       375-2.50000E+01 2.50000E+00 1.00000E+02
 -1       376-2.50000E+01 0.00000E+00 1.05000E+02
 -1       377-2.04167E+01 5.00000E+00 1.00000E+02
 -1       378-2.04167E+01 0.00000E+00 1.00000E+02
 -1       379-1.58333E+01 0.00000E+00 9.50000E+01
 -1       380-1.58333E+01 2.50000E+00 9.00000E+01
 -1       381-1.58333E+01 5.00000E+00 9.50000E+01
 -1       382-2.50000E+01 5.00000E+00 9.50000E+01
 -1       383-2.50000E+01 2.50000E+00 9.00000E+01
 -1       384-2.50000E+01 0.00000E+00 9.50000E+01
 -1       385-2.04167E+01 5.00000E+00 9.00000E+01
 -1       386-2.04167E+01 0.00000E+00 9.00000E+01
 -1       387-1.58333E+01 0.00000E+00 8.50000E+01
 -1       388-1.58333E+01 2.50000E+00 8.00000E+01
 -1       389-1.58333E+01 5.00000E+00 8.50000E+01
 -1       390-2.50000E+01 5.00000E+00 8.50000E+01
 -1       391-2.50000E+01 2.50000E+00 8.00000E+01
 -1       392-2.50000E+01 0.00000E+00 8.50000E+01
 -1       393-2.04167E+01 5.00000E+00 8.00000E+01
 -1       394-2.04167E+01 0.00000E+00 8.00000E+01
 -1       395-1.58333E+01 0.00000E+00 7.50000E+01
 -1       396-1.58333E+01 2.50000E+00 7.00000E+01
 -1       397-1.58333E+01 5.00000E+00 7.50000E+01
 -1       398-2.50000E+01 5.00000E+00 7.50000E+01
 -1       399-2.50000E+01 2.50000E+00 7.00000E+01
 -1       400-2.50000E+01 0.00000E+00 7.50000E+01
 -1       401-2.04167E+01 5.00000E+00 7.00000E+01
 -1       402-2.04167E+01 0.00000E+00 7.00000E+01
 -1       403-1.58333E+01 0.00000E+00 6.50000E+01
 -1       404-1.58333E+01 2.50000E+00 6.00000E+01
 -1       405-1.58333E+01 5.00000E+00 6.50000E+01
 -1       406-2.50000E+01 5.00000E+00 6.50000E+01
 -1       407-2.50000E+01 2.50000E+00 6.00000E+01
 -1       408-2.50000E+01 0.00000E+00 6.50000E+01
 -1       409-2.04167E+01 5.00000E+00 6.00000E+01
 -1       410-2.04167E+01 0.00000E+00 6.00000E+01
 -1       411-1.58333E+01 0.00000E+00 5.50000E+01
 -1       412-1.58333E+01 2.50000E+00 5.00000E+01
 -1       413-1.58333E+01 5.00000E+00 5.50000E+01
 -1       414-2.50000E+01 5.00000E+00 5.50000E+01
 -1       415-2.50000E+01 2.50000E+00 5.00000E+01
 -1       416-2.50000E+01 0.00000E+00 5.50000E+01
 -1       417-2.04167E+01 5.00000E+00 5.00000E+01
 -1       418-2.04167E+01 0.00000E+00 5.00000E+01
 -1       419-1.58333E+01 0.00000E+00 4.50000E+01
 -1       420-1.58333E+01 2.50000E+00 4.00000E+01
 -1       421-1.58333E+01 5.00000E+00 4.50000E+01
 -1       422-2.50000E+01 5.00000E+00 4.50000E+01
 -1       423-2.50000E+01 2.50000E+00 4.00000E+01
 -1       424-2.50000E+01 0.00000E+00 4.50000E+01
 -1       425-2.04167E+01 5.00000E+00 4.00000E+01
 -1       426-2.04167E+01 0.00000E+00 4.00000E+01
 -1       427-1.58333E+01 0.00000E+00 3.50000E+01
 -1       428-1.58333E+01 2.50000E+00 3.00000E+01
 -1       429-1.58333E+01 5.00000E+00 3.50000E+01
 -1       430-2.50000E+01 5.00000E+00 3.50000E+01
 -1       431-2.50000E+01 2.50000E+00 3.00000E+01
 -1       432-2.50000E+01 0.00000E+00 3.50000E+01
 -1       433-2.04167E+01 5.00000E+00 3.00000E+01
 -1       434-2.04167E+01 0.00000E+00 3.00000E+01
 -1       435-1.58333E+01 0.00000E+00 2.50000E+01
 -1       436-1.58333E+01 2.50000E+00 2.00000E+01
 -1       437-1.58333E+01 5.00000E+00 2.50000E+01
 -1       438-2.50000E+01 5.00000E+00 2.50000E+01
 -1       439-2.50000E+01 2.50000E+00 2.00000E+01
 -1       440-2.50000E+01 0.00000E+00 2.50000E+01
 -1       441-2.04167E+01 5.00000E+00 2.00000E+01
 -1       442-2.04167E+01 0.00000E+00 2.00000E+01
 -1       443-1.58333E+01 0.00000E+00 1.50000E+01
 -1       444-1.58333E+01 2.50000E+00 1.00000E+01
 -1       445-1.58333E+01 5.00000E+00 1.50000E+01
 -1       446-2.50000E+01 5.00000E+00 1.50000E+01
 -1       447-2.50000E+01 2.50000E+00 1.00000E+01
 -1       448-2.50000E+01 0.00000E+00 1.50000E+01
 -1       449-2.04167E+01 5.00000E+00 1.00000E+01
 -1       450-2.04167E+01 0.00000E+00 1.00000E+01
 -1       451-1.58333E+01 0.00000E+00 5.00000E+00
 -1       452-1.58333E+01 2.50000E+00 0.00000E+00
 -1       453-1.58333E+01 5.00000E+00 5.00000E+00
 -1       454-2.50000E+01 5.00000E+00 5.00000E+00
 -1       455-2.50000E+01 2.50000E+00 0.00000E+00
 -1       456-2.50000E+01 0.00000E+00 5.00000E+00
 -1       457-2.04167E+01 5.00000E+00 0.00000E+00
 -1       458-2.04167E+01 0.00000E+00 0.00000E+00
 -1       459-6.66667E+00 0.00000E+00 1.95000E+02
 -1       460-6.66667E+00 2.50000E+00 1.90000E+02
 -1       461-6.66667E+00 5.00000E+00 1.95000E+02
 -1       462-6.66667E+00 2.50000E+00 2.00000E+02
 -1       463-1.12500E+01 5.00000E+00 2.00000E+02
 -1       464-1.12500E+01 0.00000E+00 2.00000E+02
 -1       465-1.12500E+01 5.00000E+00 1.90000E+02
 -1       466-1.12500E+01 0.00000E+00 1.90000E+02
 -1       467-6.66667E+00 0.00000E+00 1.85000E+02
 -1       468-6.66667E+00 2.50000E+00 1.80000E+02
 -1       469-6.66667E+00 5.00000E+00 1.85000E+02
 -1       470-1.12500E+01 5.00000E+00 1.80000E+02
 -1       471-1.12500E+01 0.00000E+00 1.80000E+02
 -1       472-6.66667E+00 0.00000E+00 1.75000E+02
 -1       473-6.66667E+00 2.50000E+00 1.70000E+02
 -1       474-6.66667E+00 5.00000E+00 1.75000E+02
 -1       475-1.12500E+01 5.00000E+00 1.70000E+02
 -1       476-1.12500E+01 0.00000E+00 1.70000E+02
 -1       477-6.66667E+00 0.00000E+00 1.65000E+02
 -1       478-6.66667E+00 2.50000E+00 1.60000E+02
 -1       479-6.66667E+00 5.00000E+00 1.65000E+02
 -1       480-1.12500E+01 5.00000E+00 1.60000E+02
 -1       481-1.12500E+01 0.00000E+00 1.60000E+02
 -1       482-6.66667E+00 0.00000E+00 1.55000E+02
 -1       483-6.66667E+00 2.50000E+00 1.50000E+02
 -1       484-6.66667E+00 5.00000E+00 1.55000E+02
 -1       485-1.12500E+01 5.00000E+00 1.50000E+02
 -1       486-1.12500E+01 0.00000E+00 1.50000E+02
 -1       487-6.66667E+00 0.00000E+00 1.45000E+02
 -1       488-6.66667E+00 2.50000E+00 1.40000E+02
 -1       489-6.66667E+00 5.00000E+00 1.45000E+02
 -1       490-1.12500E+01 5.00000E+00 1.40000E+02
 -1       491-1.12500E+01 0.00000E+00 1.40000E+02
 -1       492-6.66667E+00 0.00000E+00 1.35000E+02
 -1       493-6.66667E+00 2.50000E+00 1.30000E+02
 -1       494-6.66667E+00 5.00000E+00 1.35000E+02
 -1       495-1.12500E+01 5.00000E+00 1.30000E+02
 -1       496-1.12500E+01 0.00000E+00 1.30000E+02
 -1       497-6.66667E+00 0.00000E+00 1.25000E+02
 -1       498-6.66667E+00 2.50000E+00 1.20000E+02
 -1       499-6.66667E+00 5.00000E+00 1.25000E+02
 -1       500-1.12500E+01 5.00000E+00 1.20000E+02
 -1       501-1.12500E+01 0.00000E+00 1.20000E+02
 -1       502-6.66667E+00 0.00000E+00 1.15000E+02
 -1       503-6.66667E+00 2.50000E+00 1.10000E+02
 -1       504-6.66667E+00 5.00000E+00 1.15000E+02
 -1       505-1.12500E+01 5.00000E+00 1.10000E+02
 -1       506-1.12500E+01 0.00000E+00 1.10000E+02
 -1       507-6.66667E+00 0.00000E+00 1.05000E+02
 -1       508-6.66667E+00 2.50000E+00 1.00000E+02
 -1       509-6.66667E+00 5.00000E+00 1.05000E+02
 -1       510-1.12500E+01 5.00000E+00 1.00000E+02
 -1       511-1.12500E+01 0.00000E+00 1.00000E+02
 -1       512-6.66667E+00 0.00000E+00 9.50000E+01
 -1       513-6.66667E+00 2.50000E+00 9.00000E+01
 -1       514-6.66667E+00 5.00000E+00 9.50000E+01
 -1       515-1.12500E+01 5.00000E+00 9.00000E+01
 -1       516-1.12500E+01 0.00000E+00 9.00000E+01
 -1       517-6.66667E+00 0.00000E+00 8.50000E+01
 -1       518-6.66667E+00 2.50000E+00 8.00000E+01
 -1       519-6.66667E+00 5.00000E+00 8.50000E+01
 -1       520-1.12500E+01 5.00000E+00 8.00000E+01
 -1       521-1.12500E+01 0.00000E+00 8.00000E+01
 -1       522-6.66667E+00 0.00000E+00 7.50000E+01
 -1       523-6.66667E+00 2.50000E+00 7.00000E+01
 -1       524-6.66667E+00 5.00000E+00 7.50000E+01
 -1       525-1.12500E+01 5.00000E+00 7.00000E+01
 -1       526-1.12500E+01 0.00000E+00 7.00000E+01
 -1       527-6.66667E+00 0.00000E+00 6.50000E+01
 -1       528-6.66667E+00 2.50000E+00 6.00000E+01
 -1       529-6.66667E+00 5.00000E+00 6.50000E+01
 -1       530-1.12500E+01 5.00000E+00 6.00000E+01
 -1       531-1.12500E+01 0.00000E+00 6.00000E+01
 -1       532-6.66667E+00 0.00000E+00 5.50000E+01
 -1       533-6.66667E+00 2.50000E+00 5.00000E+01
 -1       534-6.66667E+00 5.00000E+00 5.50000E+01
 -1       535-1.12500E+01 5.00000E+00 5.00000E+01
 -1       536-1.12500E+01 0.00000E+00 5.00000E+01
 -1       537-6.66667E+00 0.00000E+00 4.50000E+01
 -1       538-6.66667E+00 2.50000E+00 4.00000E+01
 -1       539-6.66667E+00 5.00000E+00 4.50000E+01
 -1       540-1.12500E+01 5.00000E+00 4.00000E+01
 -1       541-1.12500E+01 0.00000E+00 4.00000E+01
 -1       542-6.66667E+00 0.00000E+00 3.50000E+01
 -1       543-6.66667E+00 2.50000E+00 3.00000E+01
 -1       544-6.66667E+00 5.00000E+00 3.50000E+01
 -1       545-1.12500E+01 5.00000E+00 3.00000E+01
 -1       546-1.12500E+01 0.00000E+00 3.00000E+01
 -1       547-6.66667E+00 0.00000E+00 2.50000E+01
 -1       548-6.66667E+00 2.50000E+00 2.00000E+01
 -1       549-6.66667E+00 5.00000E+00 2.50000E+01
 -1       550-1.12500E+01 5.00000E+00 2.00000E+01
 -1       551-1.12500E+01 0.00000E+00 2.00000E+01
 -1       552-6.66667E+00 0.00000E+00 1.50000E+01
 -1       553-6.66667E+00 2.50000E+00 1.00000E+01
 -1       554-6.66667E+00 5.00000E+00 1.50000E+01
 -1       555-1.12500E+01 5.00000E+00 1.00000E+01
 -1       556-1.12500E+01 0.00000E+00 1.00000E+01
 -1       557-6.66667E+00 0.00000E+00 5.00000E+00
 -1       558-6.66667E+00 2.50000E+00 0.00000E+00
 -1       559-6.66667E+00 5.00000E+00 5.00000E+00
 -1       560-1.12500E+01 5.00000E+00 0.00000E+00
 -1       561-1.12500E+01 0.00000E+00 0.00000E+00
 -1       562 2.50000E+00 0.00000E+00 1.95000E+02
 -1       563 2.50000E+00 2.50000E+00 1.90000E+02
 -1       564 2.50000E+00 5.00000E+00 1.95000E+02
 -1       565 2.50000E+00 2.50000E+00 2.00000E+02
 -1       566-2.08333E+00 5.00000E+00 2.00000E+02
 -1       567-2.08333E+00 0.00000E+00 2.00000E+02
 -1       568-2.08333E+00 5.00000E+00 1.90000E+02
 -1       569-2.08333E+00 0.00000E+00 1.90000E+02
 -1       570 2.50000E+00 0.00000E+00 1.85000E+02
 -1       571 2.50000E+00 2.50000E+00 1.80000E+02
 -1       572 2.50000E+00 5.00000E+00 1.85000E+02